12
 energy: -24.614946947602 gnorm: 0.000456827525 xtb: 6.2.2 (89a525f)
O           1.01382029544030     0.03880681993718     0.26260657568622
C           2.21194959420030     0.00777551853774     0.13894624850894
N           2.97633014247497     1.15928881874167     0.06760158128732
C           4.33128423994495     1.14641376546424    -0.07421492522129
C           5.02090106234646    -0.00303350704424    -0.15435476958224
C           4.32754207903802    -1.27903972647711    -0.09166688984675
O           4.83244816077160    -2.37420082989590    -0.15422059425404
N           2.94450163810970    -1.14763022456257     0.05629094590508
H           2.46829084494664     2.03038084438831     0.12488082938105
H           4.81038312241915     2.11362921965719    -0.11757996835012
H           6.09011013882395    -0.02137897779485    -0.26646726330202
H           2.41547828301905    -2.01176145142300     0.10488837035251
