12
 energy: -1.629564241025 gnorm: 0.000113350403 xtb: 6.2.2 (89a525f)   !mtd1
c           1.53648186970011    -0.56011339020012     0.12875854000020
c           0.71156272809985     0.64005448549977    -0.29251203220000
c          -0.69209985700011     0.59004082799978     0.29706728279980
h          -0.64548898310024     0.58581159309989     1.39260758420008
h          -1.28389637169998     1.47157066540003     0.01629766849974
o          -1.40209608370006    -0.56855227450021    -0.08081479000000
h          -1.45086351409983    -0.63040405009998    -1.06227037799981
h           1.21354305130004     1.57107642199978     0.00308663929983
h           0.64019101169983     0.68031197700022    -1.38670739749992
h           1.65321728849988    -0.59703079300021     1.21321138939994
h           2.53623642799975    -0.54939098639996    -0.31107975810017
h           1.05195720880020    -1.49082727710001    -0.17097349589985
12
 energy: -1.642244239592 gnorm: 0.110638392028 xtb: 6.2.2 (89a525f)   !mtd1
c           1.77848006814652    -0.50202508937518     0.16020914741177
c           0.70735637062331     0.65851564913335    -0.12731716824741
c          -0.70521061437189     0.39328384935263     0.34801994201362
h          -0.70155342713506     0.06941847609742     1.39206474968364
h          -1.18953642350702     1.43969958879376     0.36760733680604
o          -1.63520646733288    -0.42848568371421    -0.45427313297775
h          -1.81066902944799    -1.20337289776772     0.06629037843261
h           1.05497293759682     1.58512313163768     0.31317456994293
h           0.67076279748102     0.84644672717544    -1.23211171103949
h           2.76199113102190    -0.10068914901133     0.31676161849241
h           1.67463793894312    -1.27029751671006    -0.57195835010449
h           1.63196019301442    -0.91068260920295     1.12694330997799
12
 energy: -1.644095048085 gnorm: 0.131511503131 xtb: 6.2.2 (89a525f)   !mtd1
c           1.54887998028745    -0.45289018570871     0.02880374056948
c           0.71220607971498     0.78864039075458     0.15181927864927
c          -0.79347606532435     0.39988837030191     0.36776974101614
h          -0.99568459781209     0.16307789856684     1.39075551334989
h          -1.49490278634342     1.30936020950559     0.09474510602642
o          -1.32980300696555    -0.66211167147448    -0.39957601922570
h          -1.21202841644358    -0.43581308726660    -1.31878936194789
h           1.05483191678188     1.36692353719255     0.96725281722152
h           0.92429429897284     1.38621899766339    -0.79749230467469
h           1.11534504222332    -1.19499868227198    -0.73745758217582
h           1.46808316953658    -1.02080965655843     1.02544481885686
h           2.66926590950092    -0.36555778378638    -0.28903180301317
12
 energy: -1.636001850071 gnorm: 0.135384383167 xtb: 6.2.2 (89a525f)   !mtd1
c           1.55684283807472    -0.43604264738953     0.05472612718237
c           0.67903350905134     0.81156821859983     0.19476480629901
c          -0.80159733148271     0.26290989525318     0.43440644416264
h          -0.80096282979241    -0.33411850469276     1.25791569095988
h          -1.49283940482549     1.18708384938902     0.61889675996537
o          -1.22647444436850    -0.50697408025631    -0.66216318866890
h          -2.14373756207909    -0.81827937637993    -0.53725593376017
h           1.13734651295643     1.39779299508074     0.95337682330965
h           0.64892154492896     1.42850135727328    -0.76562760969880
h           1.05110572281622    -1.35399993086980     0.25025887715415
h           2.40727812490400    -0.41354508477786     0.70514067568230
h           2.09565946434933    -0.54234800735009    -0.86041394107592
12
 energy: -1.642064131398 gnorm: 0.120179100876 xtb: 6.2.2 (89a525f)   !mtd1
c           1.71711155082266    -0.38054362941784     0.06108490716577
c           0.59213029271383     0.72817065165572    -0.09784509896926
c          -0.70599263942794     0.25908946260978     0.56533392399391
h          -0.46307009874333    -0.36165931571815     1.33263702568164
h          -1.31141343143456     1.16440810831158     0.93522031902891
o          -1.54097608708476    -0.49507059629021    -0.39567804555029
h          -1.09922416708471    -0.53487602234576    -1.29133661370419
h           0.82887830182913     1.68454892147655     0.33051910246958
h           0.46884176446393     0.79624122280223    -1.21199449995824
h           2.22900973203302    -0.51544393330139    -0.88953399746242
h           1.32749237638850    -1.36772708707401     0.33866444933253
h           2.42344850640282    -0.21914477084228     0.87908934447352
12
 energy: -1.641089136771 gnorm: 0.095868830445 xtb: 6.2.2 (89a525f)   !mtd1
c           1.52016626393876    -0.45865441198674    -0.13479000504689
c           0.64458088237936     0.83907739968369     0.00309547591601
c          -0.76504753168159     0.49629006644297     0.39645129293914
h          -0.83968740706362     0.23970831992603     1.44147127373371
h          -1.52728977152449     1.28066394019180     0.05183390925138
o          -1.26480688815433    -0.66650536219474    -0.26247467568554
h          -1.24521518035707    -1.45291111771728     0.40255709897496
h           1.17519490825928     1.47208173481835     0.74295905024731
h           0.59756332798817     1.36352960068886    -0.96409469349109
h           2.64274967209621    -0.29180491472283     0.04611205169302
h           1.41181176931429    -0.80621563186458    -1.20437971454843
h           1.20195442593307    -1.40870643331336     0.42553679500141
12
 energy: -1.640963837819 gnorm: 0.096687388058 xtb: 6.2.2 (89a525f)   !mtd1
c           1.59315580484332    -0.33912173556364    -0.40697428718582
c           0.68152993774592     0.62906046487905     0.39022411937856
c          -0.84536052637946     0.60007401835239    -0.03803623918729
h          -1.43396062508983     1.26014334444121     0.67684728067077
h          -1.00304501968801     1.00687787136294    -1.04771966117787
o          -1.36381473999190    -0.74889910936661     0.05621358820343
h          -0.97836039230615    -1.35638600819141     0.78327982231293
h           0.72547179590667     0.38302529541933     1.52013092427705
h           1.20583233254558     1.56982046990833     0.20371110350067
h           2.29665087856527     0.08299582023580    -1.07244338974466
h           0.97364209292663    -1.00977813406405    -0.89214804361074
h           2.24497139950239    -0.96109725242286     0.13990076260898
12
 energy: -1.637312165366 gnorm: 0.119745373326 xtb: 6.2.2 (89a525f)   !mtd1
c           1.91133594909067    -0.04913790365045    -0.54260345437376
c           0.74680218994685     0.21639286893216     0.46924646202511
c          -0.72388119331819     0.29541813601404    -0.19333602638614
h          -1.09722815744165     1.34448971031285     0.03710595653177
h          -0.68409893981535     0.17282787503416    -1.22229661787256
o          -1.78745136645095    -0.50385242439524     0.31009821996485
h          -2.20549355159232    -0.17982943238300     1.13553295375473
h           0.78755602146423    -0.72122624810652     1.12449652733763
h           0.83202755662025     1.09258068630994     1.07863563581287
h           1.65931566571358     0.47884015903745    -1.48875776510552
h           2.22420335704199    -1.09235029383224    -0.79525306041132
h           2.87158664786781     0.48630019782342    -0.31632916993057
12
 energy: -1.640073986761 gnorm: 0.143550137017 xtb: 6.2.2 (89a525f)   !mtd1
c           1.98567504289686     0.34686642920142    -0.43410181975397
c           0.69029419446237    -0.19118598544302     0.34522728277633
c          -0.74786302784654    -0.15377596233465    -0.37054179760724
h          -0.84458542551695     0.73717818914931    -1.07894332855616
h          -0.88169960394728    -0.96267534154318    -0.96630077841112
o          -1.88155379577552    -0.05999474395143     0.51661140989505
h          -1.62133348028701     0.47368262657921     1.25018985547573
h           0.82316017802090    -1.24262606134979     0.70272994528965
h           0.65918230478210     0.40206003959378     1.18078275600221
h           1.86889904464069     1.38201994157826    -0.85497114339263
h           2.21289039477110    -0.32568496911814    -1.30200078141802
h           2.96108405683890     0.33403395331534     0.12697828584424
12
 energy: -1.635958127729 gnorm: 0.126299010221 xtb: 6.2.2 (89a525f)   !mtd1
c           1.92991643562496     0.47104443991235    -0.37989819993733
c           0.70881322458065    -0.25384009737416     0.33756192823526
c          -0.72687502651298    -0.34225100873693    -0.34208065364821
h          -0.79060668360924     0.15390977383613    -1.39562846817148
h          -1.06053835277027    -1.32171024944469    -0.53578116196127
o          -1.80151140365017     0.07341474461849     0.49465513487211
h          -1.73910130777997     1.00818555113370     0.75474024021376
h           1.13483636148131    -1.28667646838266     0.47235072512310
h           0.53959398033712     0.10954057887216     1.29765118747271
h           1.95533456758194     1.49972931042829    -0.21298526330024
h           1.74061033324899     0.34066246222989    -1.39322599071756
h           2.85474994218987    -0.01050044122033    -0.20341183899817
12
 energy: -1.641608449475 gnorm: 0.093537042571 xtb: 6.2.2 (89a525f)   !mtd1
c           1.84978313234835     0.47891950209241    -0.33746744038121
c           0.70267747303413    -0.31857874824402     0.27436412601966
c          -0.72772458053052    -0.36574940338105    -0.36099223926219
h          -0.91914357539661     0.15973767296556    -1.37052379091260
h          -1.01490751033025    -1.38690278010512    -0.63849173833814
o          -1.74085450786701     0.16533261648629     0.51269874128896
h          -1.41289753729261     1.03158017064008     0.93833924042056
h           1.00540670354491    -1.42389323625543     0.31444629116609
h           0.60084724984352    -0.10500317021935     1.33365750289360
h           1.41758737677911     1.41742663014927    -0.78673377494346
h           2.22182083737781    -0.08197423856194    -1.23680553923562
h           2.77410747912183     0.62945712225262     0.32376251850371
12
 energy: -1.643947019120 gnorm: 0.069700928004 xtb: 6.2.2 (89a525f)   !mtd1
c           1.93239890167384     0.32813336076681    -0.48157706202679
c           0.71867295671978    -0.16571051695072     0.42208919526002
c          -0.67594118467636    -0.24127533106001    -0.29095012740518
h          -0.65823412598407     0.52836177725480    -1.04384422068819
h          -0.86769511509011    -1.15150463684852    -0.89487620117837
o          -1.85147765111486    -0.05405607276759     0.44059146908171
h          -1.99300612848248     0.92469191517787     0.70640455139278
h           0.93836215283753    -1.11754556439189     1.00662914937348
h           0.56882936255843     0.56488839604089     1.25491373311745
h           2.34357358765938     1.19218715245985     0.06726506576146
h           1.55282789060596     0.69933298202789    -1.44741601464858
h           2.76994042656860    -0.40495593461861    -0.63692937752266
12
 energy: -1.642266153154 gnorm: 0.111355067067 xtb: 6.2.2 (89a525f)   !mtd1
c           1.88342570820298    -0.03036773932284    -0.33088153154257
c           0.63757885130816     0.60451634669561     0.20975506489155
c          -0.70353768158905     0.07470966422087    -0.31698870005197
h          -1.19836269575278     0.71987286351510    -0.95945204898181
h          -0.43637823519545    -0.69582844345384    -1.12019381012984
o          -1.69186129056078    -0.62964894268527     0.49955487390057
h          -1.78382783197878    -0.14072644888345     1.33192743579351
h           0.59383808253017     0.52643804757388     1.29717956134615
h           0.64632150513175     1.69176242588257     0.01146035484201
h           1.98400819476504    -0.96034089395114     0.15204711122732
h           2.74606365402857     0.57227436091053    -0.28365758321658
h           1.77288109110764    -0.24359499504576    -1.36232034798823
12
 energy: -1.637481785939 gnorm: 0.125537543373 xtb: 6.2.2 (89a525f)   !mtd1
c           1.62994440948674    -0.24859303773697    -0.02862474445531
c           0.53842453737160     0.86490908178884    -0.33382289837703
c          -0.92428574128614     0.26919380014550    -0.30317551566082
h          -1.68297163047510     0.99731236618328    -0.10654285739185
h          -1.30872161560334    -0.01156919849907    -1.37306324138874
o          -1.05740336550605    -0.86240337973652     0.60772110113419
h          -1.22495977871493    -0.51184512216389     1.46900224082686
h           0.43947550381297     1.51488532944346     0.48097079469199
h           0.82984395862539     1.51724930944835    -1.18958790191435
h           1.89810854866511    -0.87203531322446    -0.95501773186127
h           1.17497062744275    -0.92082483481303     0.75616680145631
h           2.56670345603980     0.19747085339658     0.48603413664938
12
 energy: -1.640836348719 gnorm: 0.085911121681 xtb: 6.2.2 (89a525f)   !mtd1
c           1.71898858609572    -0.23399586339519    -0.00059635640398
c           0.50558958048640     0.69431111617420    -0.44879603263757
c          -0.99211580654646     0.32025549597429    -0.18218223057016
h          -1.59195188985800     1.16348642544373     0.19199059786499
h          -1.59613452134546    -0.04326278719694    -1.07783091711346
o          -1.14860253068986    -0.74391848993179     0.63955440523547
h          -0.70289169486908    -0.50204148792757     1.46962540263809
h           0.73547962554474     1.66654444037882    -0.09773903417709
h           0.57135174098042     0.77155623462044    -1.60188635606084
h           2.59618637344091     0.30831457462463     0.36429980537410
h           2.02703113441678    -0.77057441040969    -0.86817161799798
h           1.45273194089028    -1.00102558372417     0.72854339526864
12
 energy: -1.651323154115 gnorm: 0.110161340119 xtb: 6.2.2 (89a525f)   !mtd1
c           1.62525743352917    -0.26262798249881    -0.32327254085351
c           0.51822062974243     0.70622057842715    -0.33517719180672
c          -0.85931277462237    -0.00547732532841    -0.32796941443398
h          -1.68302601173426     0.65449331139709    -0.60796490374079
h          -0.97449342409622    -0.75447959384568    -1.06165841236214
o          -1.17150281627233    -0.42384587812755     1.01298541645205
h          -0.83797489015277     0.25412644096849     1.68360291860439
h           0.61591150429127     1.42865016832725     0.45785165559369
h           0.59784308971783     1.32512931187207    -1.32158327316984
h           1.50411301433567    -0.86665877427113     0.56487501267974
h           2.63981510909999     0.04930222050162    -0.35300729028440
h           1.50231467823088    -1.00148018636516    -1.10964945801747
12
 energy: -1.640601643833 gnorm: 0.129226415453 xtb: 6.2.2 (89a525f)   !mtd1
c           1.60533032931606    -0.29980277617135    -0.36048181444914
c           0.45928989312379     0.73596366164023    -0.52627017822086
c          -0.82056864431744    -0.17513855114529    -0.21696504904128
h          -1.72858041561985     0.26883278063072    -0.75388936040388
h          -0.75761462355176    -1.16315160553645    -0.56924000291950
o          -1.17739409511065    -0.18272600680499     1.12961073662567
h          -0.44038644923956     0.10670494003464     1.78376668640132
h           0.41979141203876     1.57801780991983     0.13308178898932
h           0.45401344216357     1.18360215062734    -1.56559684723804
h           1.64911292890014    -1.02583136396447    -1.27120472260205
h           1.39049931217907    -0.87922313760296     0.59072939282020
h           2.66569353219080     0.15475234038720    -0.32373152949958
12
 energy: -1.640130393629 gnorm: 0.095311366591 xtb: 6.2.2 (89a525f)   !mtd1
c           1.53889693086548    -0.17770488647748    -0.17117699201151
c           0.36075873751798     0.45456202994535    -0.87155880182985
c          -0.90408748708635     0.01034065305734    -0.17387309073637
h          -1.76153821052867     0.78511883344501    -0.40186989349913
h          -1.25480248230606    -0.93192909070153    -0.59479475624859
o          -0.80402861591979    -0.08000615220361     1.24235294377605
h          -0.83031808121559    -1.05210549330978     1.45983300417974
h           0.45781965922254     1.51316386803188    -0.85071194125922
h           0.20413564034896     0.18538696893574    -1.92410700343088
h           2.45330615218518     0.35038019290650     0.05711462632936
h           1.70802537811480    -1.06408121983370    -0.69706785838058
h           1.18132256827948    -0.54115170030575     0.75157217093699
12
 energy: -1.647200522693 gnorm: 0.079054221158 xtb: 6.2.2 (89a525f)   !mtd1
c           1.71030953783802    -0.27096301855060    -0.45509743559980
c           0.35797627825568     0.51753063901437    -0.57392707317946
c          -0.86206881118675    -0.28030079062289    -0.11747476906047
h          -1.78155278480968     0.12196679603578    -0.62702611236102
h          -0.87594099799723    -1.31921332572368    -0.36503604109053
o          -1.05678559274986    -0.00904602553736     1.25398941872611
h          -1.30512970457026     0.91704168774743     1.37916315508761
h           0.32250227033981     1.56318074464336    -0.19378184300326
h           0.28913162768584     0.67757745353115    -1.64475902955930
h           2.51856503050335     0.36148004502681    -0.03302129505241
h           2.21845259889306    -0.55931054414556    -1.37904908999761
h           1.52887949937376    -1.15829185631234     0.14935628202900
12
 energy: -1.638405737317 gnorm: 0.109563063994 xtb: 6.2.2 (89a525f)   !mtd1
c           1.76431314668146    -0.22571677840876    -0.60238045733423
c           0.45001305255947     0.49841928236467    -0.46695125107144
c          -0.74339683713421    -0.34427617428064    -0.04274302341282
h          -1.54530454964471    -0.39692271649346    -0.74980037923359
h          -0.43560408899604    -1.37108628313800     0.19196504833409
o          -1.36361974721717     0.21300023903568     1.08321992152190
h          -1.24621446373337    -0.23408818669761     1.91907607156601
h           0.69016315012016     1.18786160006822     0.42121177883835
h           0.08836429064470     1.20524848790871    -1.21724847829813
h           2.51183191112994     0.36293114075006    -1.28098200518670
h           1.55261335295086    -1.11938480424991    -1.24967639578370
h           2.16394477135481    -0.57918615937733     0.41067348732439
12
 energy: -1.640311803758 gnorm: 0.106928883244 xtb: 6.2.2 (89a525f)   !mtd1
c           1.66597237492501    -0.22021224059423    -0.95496565701176
c           0.57297792542144     0.52247632126929    -0.15083276703805
c          -0.49805776365278    -0.46573038335102     0.31584308877838
h          -0.83513700056884    -1.09238329587302    -0.51953208219507
h          -0.09177864472844    -1.23298532105719     1.10767471404289
o          -1.52963318445237     0.30165378134769     0.88176066703853
h          -2.44945843141747    -0.00904744519511     0.78391642465147
h           0.88122119840300     1.02833807303766     0.84335347114775
h           0.13670639636354     1.32865381627270    -0.71208848599277
h           1.98240831842446     0.27013027973593    -1.83756417209478
h           1.36459014641619    -1.17670495153527    -1.21950568705998
h           2.49807229683260    -0.21798096797283    -0.32386646135544
12
 energy: -1.632293729733 gnorm: 0.094411730016 xtb: 6.2.2 (89a525f)   !mtd1
c           1.46500879461443    -0.20831280666603    -1.08491591303208
c           0.62524681871385     0.63964162944112    -0.10724969047796
c          -0.25044919349146    -0.34833213271587     0.73421727449543
h          -0.20409549719214    -1.33983408631154     0.35589454706036
h           0.00017863146893    -0.43412541566370     1.84906752034787
o          -1.65894727202622    -0.00884999515766     0.63990311803787
h          -1.87171168130388     0.69450617881490    -0.05528552328353
h           1.16217077664475     1.43777134771452     0.46609221208744
h          -0.13576002508537     1.13833833144348    -0.62434966550418
h           2.55276222650929    -0.32533763322206    -0.74166686364948
h           1.21105107773918     0.01489253944222    -2.15487490280148
h           1.21248873178360    -1.28435420748878    -1.03152540795302
12
 energy: -1.648718153418 gnorm: 0.086919951377 xtb: 6.2.2 (89a525f)   !mtd1
c           1.66379593066609    -0.21516546771237    -0.89490198111069
c           0.38160376219973     0.53422267122895    -0.49452037655626
c          -0.31457090035275    -0.28893259278912     0.52506703131999
h          -0.39759967130789    -1.27068510873845     0.20227363502788
h           0.29836280328381    -0.35622707517273     1.42302961668838
o          -1.63556353352971     0.11060715571738     0.83097576521217
h          -1.84371025236825    -0.08621848246147     1.81633764215422
h           0.63606431738480     1.53311452782088    -0.09690340490493
h          -0.21711397214115     0.74192747472550    -1.37145981060741
h           2.02053734035735    -0.81163957581588    -0.00132896688948
h           2.52262776208671     0.41092698983616    -1.27886118177429
h           1.37530371329155    -0.89744706851575    -1.71763638259391
12
 energy: -1.638817875796 gnorm: 0.113992465456 xtb: 6.2.2 (89a525f)   !mtd1
c           1.70939508384808     0.02228981801073    -0.53666744408760
c           0.21780139880614     0.31358872142704    -0.86901374206165
c          -0.66601176193122    -0.46190514967963     0.13943110803940
h          -1.53509911982016    -0.98614853028203    -0.34257765630505
h          -0.05473586267192    -1.35456000269534     0.47844927856229
o          -1.12227939848231     0.10277405759302     1.36637804005177
h          -1.47938945613067     1.03398854345244     1.13648121589798
h          -0.00721621818629     1.40730260743790    -0.79289649859758
h          -0.00558148543098     0.12995320838921    -1.96773796389834
h           1.91148126299575     0.71335360347749     0.24217127220848
h           2.44778265720029     0.34645876384909    -1.20013954067129
h           1.83149536144887    -1.02618851985324    -0.44783199370981
12
 energy: -1.640124971160 gnorm: 0.076176909359 xtb: 6.2.2 (89a525f)   !mtd1
c           1.45166591843722     0.34286864510656    -0.29578710868520
c           0.22935957559295    -0.00502055745901    -1.13492230438088
c          -0.87035772488091    -0.35460894392574     0.00762654635707
h          -1.90777059847641    -0.04573324671740    -0.27984058769094
h          -0.88264287760902    -1.45907805731549     0.12131205860741
o          -0.60920249352066     0.13856165844460     1.37690857600838
h          -0.90916877532796    -0.58502935665956     1.99336007433517
h          -0.16467548732267     0.79940440639909    -1.75807247560238
h           0.34916275891103    -0.85132257489296    -1.87434838206091
h           1.12158773673093     1.10974966302960     0.48034960697944
h           2.20101148978726     0.95374815068106    -0.84900017331366
h           1.90229037583342    -0.60005052620470     0.12975543999784
12
 energy: -1.642682888605 gnorm: 0.085709280133 xtb: 6.2.2 (89a525f)   !mtd1
c           1.57208300881806     0.34934784344916    -0.40683390432225
c           0.06128662624652     0.22470675226297    -0.84745361812288
c          -0.74936874205212    -0.66686153085735     0.05467466332117
h          -1.67434951875422    -1.07937128919630    -0.31267945354097
h          -0.14375527858423    -1.48375686203401     0.27216775131354
o          -0.88405917911384     0.08539549083211     1.22410505070548
h          -0.09353973182130     0.64875816156162     1.25624562670123
h          -0.42792472881872     1.15805150546235    -0.79766497185483
h          -0.05906396819642    -0.13434861331242    -1.89352935376906
h           1.75996463985169     1.15044423146199     0.34711719606774
h           2.25673151726657     0.45709016637361    -1.27175246010107
h           1.85011100374899    -0.51318063540746     0.24397434236006
12
 energy: -1.638978735316 gnorm: 0.114628054867 xtb: 6.2.2 (89a525f)   !mtd1
c           1.62436558691346     0.39750969330791    -0.51669663311282
c           0.10808758002340     0.10512237368532    -0.85629972790319
c          -0.74715591269442    -0.63647991424404     0.15109469857075
h          -1.80369037971648    -0.94437853577144    -0.19646740093348
h          -0.28938028660539    -1.57033332232732     0.53146944021476
o          -0.82355693407807     0.23681749074290     1.22357340150640
h          -1.36238271074531    -0.14011907902446     1.91547850981112
h          -0.29868754974825     1.04691061237569    -1.15304583780290
h           0.09574098249575    -0.49390841564162    -1.81562165554900
h           1.80465806178566     0.30803691875743     0.51901086574082
h           1.85590788358765     1.30874988728001    -1.00971002066544
h           2.37368605400838    -0.27613656772571    -0.80912972312395
12
 energy: -1.647660164361 gnorm: 0.077068975254 xtb: 6.2.2 (89a525f)   !mtd1
c           1.55587064094824     0.51817696992705    -0.54046153411723
c           0.11332106669666     0.12527423122261    -0.94559419718635
c          -0.73092534458792    -0.61839241958622     0.10856979593047
h          -1.76200695370533    -0.87754990933603    -0.28836070310234
h          -0.11405450120354    -1.49872180777957     0.32049068516301
o          -0.94366488209457    -0.04035222444473     1.42024764909970
h          -0.26621828733490     0.58855073160206     1.70082097509764
h          -0.40717717322707     1.04643389084653    -1.16596051687510
h           0.22670898562831    -0.54106428441889    -1.87067648564584
h           1.67316911630409     1.44617114984295     0.12642227922684
h           2.18082433615738     0.67846150139449    -1.47111877382661
h           2.08787218624134    -0.34047729752872    -0.00862793847140
12
 energy: -1.646824525596 gnorm: 0.076089240164 xtb: 6.2.2 (89a525f)   !mtd1
c           1.42964510538186     0.53958361535727    -0.52509571023285
c           0.09254996863388     0.08247214887528    -1.02406122792991
c          -0.67504415753369    -0.63252615919854     0.12113454261818
h          -1.67022453829894    -0.71362648056581    -0.24695307388419
h          -0.18806823335945    -1.56966669362393     0.32006088035508
o          -0.66171979535911     0.01399466384061     1.45036492871832
h          -1.53931523567669     0.25337615474798     1.84143869697693
h          -0.47845059869874     0.91878681495243    -1.47060234299955
h           0.26141550902887    -0.71798975564019    -1.75549236440009
h           1.28553943152655     1.32518039716556     0.23925832273157
h           2.07697062804583     1.01027602760322    -1.27120782306323
h           2.16295572496129    -0.22592564790626    -0.25095201178368
12
 energy: -1.645663487777 gnorm: 0.090843890019 xtb: 6.2.2 (89a525f)   !mtd1
c           1.46156921311436     0.48458704784726    -0.56130897658085
c           0.01529563388330     0.11329093684040    -0.89955987766979
c          -0.53552190416036    -0.74599890167022     0.22767442377691
h          -1.47891754907003    -1.25326446401274    -0.11501695481026
h           0.29932304254944    -1.41554706648065     0.65979184157350
o          -0.95632371350435     0.07283552885461     1.26002878751622
h          -0.25254272941944     0.75903433508398     1.49973668503037
h          -0.50794402967161     1.09688173876002    -0.91225375852244
h           0.10205364248827    -0.39724440318086    -1.83795371845091
h           1.59494476332979     0.83776862197733     0.44674903868863
h           1.82917613048302     1.29195329694135    -1.12264657730565
h           2.11581532933202    -0.28323862173737    -0.86023739246930
12
 energy: -1.638953099379 gnorm: 0.105441962480 xtb: 6.2.2 (89a525f)   !mtd1
c           1.49456595574334     0.42570482543601    -0.67649021272956
c          -0.00486445850577     0.27538405102435    -0.80430035345334
c          -0.41761615612351    -0.75664970817889     0.25942575107064
h          -1.13005198572446    -1.38872054591159    -0.28044443994341
h           0.43011221325846    -1.36782683992243     0.69633925465442
o          -1.11667960699978     0.01664346225265     1.24552331777555
h          -0.42215077773464     0.53085269311900     1.78313187673199
h          -0.46967707948515     1.32909385636268    -0.72912650163521
h          -0.17585457262498    -0.14025138320344    -1.78776730183703
h           1.83959596561199     1.25066650558465     0.03282570305696
h           2.04001681557320     0.77232008031276    -1.60224463427804
h           2.08756124850050    -0.45612848505621    -0.30954654400034
12
 energy: -1.634538153203 gnorm: 0.092762222086 xtb: 6.2.2 (89a525f)   !mtd1
c           1.33699070559217     0.55285550998464    -0.39487151854139
c           0.08810431273709    -0.12538582214884    -1.00164169708666
c          -0.73189441387349    -0.68227343019642     0.11340997082973
h          -1.79282383801184    -0.56482194713661    -0.11943655083697
h          -0.26558861300619    -1.60533868565754     0.44857875480261
o          -0.50708471657198     0.17665686408998     1.26724372866659
h          -1.34984816207502     0.67491231835603     1.44156315922750
h          -0.52916345225345     0.76175030623501    -1.38654505025546
h           0.34914783751212    -0.82325211626569    -1.78559261428626
h           1.64761501193578     0.11880909434745     0.57154827064728
h           1.27868635785566     1.63997141410697    -0.30903605274793
h           2.26029119513111     0.24444288282342    -0.86090734131884
12
 energy: -1.640781570785 gnorm: 0.097457853026 xtb: 6.2.2 (89a525f)   !mtd1
c           1.57025589368778     0.44614694627812    -0.54063546753660